<?xml version="1.0" encoding="UTF-8"?>

<!-- generated on Sun Oct 21 14:56:53 2018 by Eclipse SUMO Version 1.0.1
<configuration xmlns:xsi="http://www.w3.org/2001/XMLSchema-instance" xsi:noNamespaceSchemaLocation="http://sumo.dlr.de/xsd/sumoConfiguration.xsd">

    <input>
        <net-file value="Data/State_Street_4500_South.net.xml"/>
        <route-files value="Data/State_Street_4500_South.rou.xml"/>
        <additional-files value="Data/State_Street_4500_South.det.xml"/>
    </input>

    <output>
        <tripinfo-output value="tripinfo.xml"/>
    </output>

    <time>
        <begin value="0"/>
    </time>

    <processing>
        <time-to-teleport value="-1"/>
    </processing>

    <report>
        <verbose value="true"/>
        <no-step-log value="true"/>
    </report>

    <traci_server>
        <remote-port value="51269"/>
    </traci_server>

    <gui_only>
        <gui-settings-file value="Data/State_Street_4500_South.settings.xml"/>
    </gui_only>

</configuration>
-->

<tripinfos xmlns:xsi="http://www.w3.org/2001/XMLSchema-instance" xsi:noNamespaceSchemaLocation="http://sumo.dlr.de/xsd/tripinfo_file.xsd">
    <tripinfo id="5" depart="10.00" departLane="gneE6_0" departPos="5.10" departSpeed="0.00" departDelay="0.00" arrival="65.00" arrivalLane="gneE7_0" arrivalPos="282.05" arrivalSpeed="13.07" duration="55.00" routeLength="567.94" waitingTime="0.00" waitingCount="0" stopTime="0.00" timeLoss="11.72" rerouteNo="0" devices="tripinfo_5" vType="passenger" speedFactor="0.96" vaporized=""/>
    <tripinfo id="2" depart="6.00" departLane="gneE0_0" departPos="5.10" departSpeed="0.00" departDelay="0.00" arrival="69.00" arrivalLane="gneE1_0" arrivalPos="282.05" arrivalSpeed="11.43" duration="63.00" routeLength="567.94" waitingTime="0.00" waitingCount="0" stopTime="0.00" timeLoss="13.16" rerouteNo="0" devices="tripinfo_2" vType="passenger" speedFactor="0.83" vaporized=""/>
    <tripinfo id="1" depart="2.00" departLane="gneE2_0" departPos="5.10" departSpeed="0.00" departDelay="0.00" arrival="73.00" arrivalLane="gneE5_0" arrivalPos="282.05" arrivalSpeed="13.36" duration="71.00" routeLength="595.27" waitingTime="4.00" waitingCount="1" stopTime="0.00" timeLoss="27.04" rerouteNo="0" devices="tripinfo_1" vType="passenger" speedFactor="0.98" vaporized=""/>
    <tripinfo id="3" depart="7.00" departLane="gneE4_0" departPos="5.10" departSpeed="0.00" departDelay="0.00" arrival="85.00" arrivalLane="gneE1_1" arrivalPos="282.05" arrivalSpeed="12.06" duration="78.00" routeLength="592.32" waitingTime="8.00" waitingCount="1" stopTime="0.00" timeLoss="29.36" rerouteNo="0" devices="tripinfo_3" vType="passenger" speedFactor="0.89" vaporized=""/>
    <tripinfo id="11" depart="28.00" departLane="gneE0_0" departPos="5.10" departSpeed="0.00" departDelay="0.00" arrival="85.00" arrivalLane="gneE3_0" arrivalPos="282.05" arrivalSpeed="12.96" duration="57.00" routeLength="594.92" waitingTime="0.00" waitingCount="0" stopTime="0.00" timeLoss="11.38" rerouteNo="0" devices="tripinfo_11" vType="passenger" speedFactor="0.95" vaporized=""/>
    <tripinfo id="12" depart="33.00" departLane="gneE0_0" departPos="5.10" departSpeed="0.00" departDelay="1.00" arrival="86.00" arrivalLane="gneE3_1" arrivalPos="282.05" arrivalSpeed="14.33" duration="53.00" routeLength="594.92" waitingTime="0.00" waitingCount="0" stopTime="0.00" timeLoss="11.76" rerouteNo="0" devices="tripinfo_12" vType="passenger" speedFactor="1.04" vaporized=""/>
    <tripinfo id="4" depart="11.00" departLane="gneE0_0" departPos="5.10" departSpeed="0.00" departDelay="2.00" arrival="87.00" arrivalLane="gneE5_0" arrivalPos="282.05" arrivalSpeed="10.63" duration="76.00" routeLength="592.32" waitingTime="2.00" waitingCount="1" stopTime="0.00" timeLoss="20.67" rerouteNo="0" devices="tripinfo_4" vType="passenger" speedFactor="0.78" vaporized=""/>
    <tripinfo id="0" depart="0.00" departLane="gneE0_0" departPos="5.10" departSpeed="0.00" departDelay="0.00" arrival="93.00" arrivalLane="gneE3_0" arrivalPos="282.05" arrivalSpeed="14.50" duration="93.00" routeLength="594.92" waitingTime="27.00" waitingCount="1" stopTime="0.00" timeLoss="51.75" rerouteNo="0" devices="tripinfo_0" vType="passenger" speedFactor="1.06" vaporized=""/>
    <tripinfo id="19" depart="50.00" departLane="gneE2_0" departPos="5.10" departSpeed="0.00" departDelay="1.00" arrival="104.00" arrivalLane="gneE5_1" arrivalPos="282.05" arrivalSpeed="14.11" duration="54.00" routeLength="595.27" waitingTime="0.00" waitingCount="0" stopTime="0.00" timeLoss="12.05" rerouteNo="0" devices="tripinfo_19" vType="passenger" speedFactor="1.03" vaporized=""/>
    <tripinfo id="10" depart="32.00" departLane="gneE6_0" departPos="5.10" departSpeed="0.00" departDelay="8.00" arrival="113.00" arrivalLane="gneE1_1" arrivalPos="282.05" arrivalSpeed="14.17" duration="81.00" routeLength="595.27" waitingTime="13.00" waitingCount="1" stopTime="0.00" timeLoss="39.82" rerouteNo="0" devices="tripinfo_10" vType="passenger" speedFactor="1.05" vaporized=""/>
    <tripinfo id="15" depart="40.00" departLane="gneE2_0" departPos="5.10" departSpeed="0.00" departDelay="0.00" arrival="113.00" arrivalLane="gneE5_0" arrivalPos="282.05" arrivalSpeed="13.85" duration="73.00" routeLength="595.27" waitingTime="4.00" waitingCount="1" stopTime="0.00" timeLoss="29.70" rerouteNo="0" devices="tripinfo_15" vType="passenger" speedFactor="1.00" vaporized=""/>
    <tripinfo id="7" depart="21.00" departLane="gneE6_0" departPos="5.10" departSpeed="0.00" departDelay="10.00" arrival="113.00" arrivalLane="gneE7_0" arrivalPos="282.05" arrivalSpeed="14.20" duration="92.00" routeLength="567.94" waitingTime="26.00" waitingCount="1" stopTime="0.00" timeLoss="52.15" rerouteNo="0" devices="tripinfo_7" vType="passenger" speedFactor="1.04" vaporized=""/>
    <tripinfo id="17" depart="45.00" departLane="gneE2_0" departPos="5.10" departSpeed="0.00" departDelay="4.00" arrival="113.00" arrivalLane="gneE3_0" arrivalPos="282.05" arrivalSpeed="14.24" duration="68.00" routeLength="567.94" waitingTime="3.00" waitingCount="1" stopTime="0.00" timeLoss="28.09" rerouteNo="0" devices="tripinfo_17" vType="passenger" speedFactor="1.03" vaporized=""/>
    <tripinfo id="6" depart="16.00" departLane="gneE6_0" departPos="5.10" departSpeed="0.00" departDelay="5.00" arrival="114.00" arrivalLane="gneE1_0" arrivalPos="282.05" arrivalSpeed="13.01" duration="98.00" routeLength="595.27" waitingTime="30.00" waitingCount="1" stopTime="0.00" timeLoss="52.55" rerouteNo="0" devices="tripinfo_6" vType="passenger" speedFactor="0.95" vaporized=""/>
    <tripinfo id="14" depart="42.00" departLane="gneE6_0" departPos="5.10" departSpeed="0.00" departDelay="8.00" arrival="115.00" arrivalLane="gneE7_1" arrivalPos="282.05" arrivalSpeed="15.51" duration="73.00" routeLength="567.94" waitingTime="8.00" waitingCount="1" stopTime="0.00" timeLoss="37.03" rerouteNo="0" devices="tripinfo_14" vType="passenger" speedFactor="1.14" vaporized=""/>
    <tripinfo id="13" depart="37.00" departLane="gneE6_0" departPos="5.10" departSpeed="0.00" departDelay="3.00" arrival="115.00" arrivalLane="gneE1_1" arrivalPos="282.05" arrivalSpeed="12.32" duration="78.00" routeLength="595.27" waitingTime="8.00" waitingCount="1" stopTime="0.00" timeLoss="29.44" rerouteNo="0" devices="tripinfo_13" vType="passenger" speedFactor="0.89" vaporized=""/>
    <tripinfo id="8" depart="27.00" departLane="gneE6_0" departPos="5.10" departSpeed="0.00" departDelay="12.00" arrival="117.00" arrivalLane="gneE7_0" arrivalPos="282.05" arrivalSpeed="11.76" duration="90.00" routeLength="567.94" waitingTime="20.00" waitingCount="1" stopTime="0.00" timeLoss="42.43" rerouteNo="0" devices="tripinfo_8" vType="passenger" speedFactor="0.87" vaporized=""/>
    <tripinfo id="9" depart="23.00" departLane="gneE0_0" departPos="5.10" departSpeed="0.00" departDelay="0.00" arrival="123.00" arrivalLane="gneE5_2" arrivalPos="282.05" arrivalSpeed="14.61" duration="100.00" routeLength="592.32" waitingTime="32.00" waitingCount="1" stopTime="0.00" timeLoss="59.62" rerouteNo="0" devices="tripinfo_9" vType="passenger" speedFactor="1.07" vaporized=""/>
    <tripinfo id="22" depart="65.00" departLane="gneE2_0" departPos="5.10" departSpeed="0.00" departDelay="0.00" arrival="125.00" arrivalLane="gneE3_0" arrivalPos="282.05" arrivalSpeed="12.27" duration="60.00" routeLength="567.94" waitingTime="0.00" waitingCount="0" stopTime="0.00" timeLoss="14.73" rerouteNo="0" devices="tripinfo_22" vType="passenger" speedFactor="0.91" vaporized=""/>
    <tripinfo id="18" depart="45.00" departLane="gneE0_0" departPos="5.10" departSpeed="0.00" departDelay="0.00" arrival="134.00" arrivalLane="gneE3_0" arrivalPos="282.05" arrivalSpeed="13.67" duration="89.00" routeLength="594.92" waitingTime="21.00" waitingCount="1" stopTime="0.00" timeLoss="45.09" rerouteNo="0" devices="tripinfo_18" vType="passenger" speedFactor="0.99" vaporized=""/>
    <tripinfo id="26" depart="81.00" departLane="gneE6_0" departPos="5.10" departSpeed="0.00" departDelay="0.00" arrival="152.00" arrivalLane="gneE1_1" arrivalPos="282.05" arrivalSpeed="15.47" duration="71.00" routeLength="595.27" waitingTime="5.00" waitingCount="1" stopTime="0.00" timeLoss="33.18" rerouteNo="0" devices="tripinfo_26" vType="passenger" speedFactor="1.13" vaporized=""/>
    <tripinfo id="20" depart="55.00" departLane="gneE2_0" departPos="5.10" departSpeed="0.00" departDelay="4.00" arrival="153.00" arrivalLane="gneE5_1" arrivalPos="282.05" arrivalSpeed="13.98" duration="98.00" routeLength="595.27" waitingTime="31.00" waitingCount="1" stopTime="0.00" timeLoss="56.00" rerouteNo="0" devices="tripinfo_20" vType="passenger" speedFactor="1.03" vaporized=""/>
    <tripinfo id="24" depart="71.00" departLane="gneE6_0" departPos="5.10" departSpeed="0.00" departDelay="0.00" arrival="153.00" arrivalLane="gneE7_0" arrivalPos="282.05" arrivalSpeed="15.41" duration="82.00" routeLength="567.94" waitingTime="17.00" waitingCount="1" stopTime="0.00" timeLoss="44.55" rerouteNo="0" devices="tripinfo_24" vType="passenger" speedFactor="1.11" vaporized=""/>
    <tripinfo id="23" depart="70.00" departLane="gneE2_0" departPos="5.10" departSpeed="0.00" departDelay="3.00" arrival="154.00" arrivalLane="gneE5_0" arrivalPos="282.05" arrivalSpeed="13.44" duration="84.00" routeLength="595.27" waitingTime="16.00" waitingCount="1" stopTime="0.00" timeLoss="39.89" rerouteNo="0" devices="tripinfo_23" vType="passenger" speedFactor="0.99" vaporized=""/>
    <tripinfo id="28" depart="91.00" departLane="gneE6_0" departPos="5.10" departSpeed="0.00" departDelay="9.00" arrival="154.00" arrivalLane="gneE7_0" arrivalPos="282.05" arrivalSpeed="15.85" duration="63.00" routeLength="567.94" waitingTime="0.00" waitingCount="0" stopTime="0.00" timeLoss="27.52" rerouteNo="0" devices="tripinfo_28" vType="passenger" speedFactor="1.16" vaporized=""/>
    <tripinfo id="16" depart="47.00" departLane="gneE6_0" departPos="5.10" departSpeed="0.00" departDelay="7.00" arrival="155.00" arrivalLane="gneE1_0" arrivalPos="282.05" arrivalSpeed="13.10" duration="108.00" routeLength="595.27" waitingTime="34.00" waitingCount="1" stopTime="0.00" timeLoss="62.45" rerouteNo="0" devices="tripinfo_16" vType="passenger" speedFactor="0.96" vaporized=""/>
    <tripinfo id="21" depart="52.00" departLane="gneE6_0" departPos="5.10" departSpeed="0.00" departDelay="1.00" arrival="156.00" arrivalLane="gneE1_0" arrivalPos="282.05" arrivalSpeed="11.99" duration="104.00" routeLength="595.27" waitingTime="33.00" waitingCount="1" stopTime="0.00" timeLoss="54.13" rerouteNo="0" devices="tripinfo_21" vType="passenger" speedFactor="0.87" vaporized=""/>
    <tripinfo id="29" depart="96.00" departLane="gneE6_0" departPos="5.10" departSpeed="0.00" departDelay="5.00" arrival="157.00" arrivalLane="gneE7_0" arrivalPos="282.05" arrivalSpeed="15.01" duration="61.00" routeLength="567.94" waitingTime="1.00" waitingCount="1" stopTime="0.00" timeLoss="22.92" rerouteNo="0" devices="tripinfo_29" vType="passenger" speedFactor="1.09" vaporized=""/>
    <tripinfo id="30" depart="102.00" departLane="gneE6_0" departPos="5.10" departSpeed="0.00" departDelay="3.00" arrival="159.00" arrivalLane="gneE7_0" arrivalPos="282.05" arrivalSpeed="14.44" duration="57.00" routeLength="567.94" waitingTime="0.00" waitingCount="0" stopTime="0.00" timeLoss="17.70" rerouteNo="0" devices="tripinfo_30" vType="passenger" speedFactor="1.05" vaporized=""/>
    <tripinfo id="35" depart="109.00" departLane="gneE4_0" departPos="5.10" departSpeed="0.00" departDelay="0.00" arrival="164.00" arrivalLane="gneE7_0" arrivalPos="282.05" arrivalSpeed="13.77" duration="55.00" routeLength="594.92" waitingTime="0.00" waitingCount="0" stopTime="0.00" timeLoss="11.45" rerouteNo="0" devices="tripinfo_35" vType="passenger" speedFactor="1.00" vaporized=""/>
    <tripinfo id="31" depart="107.00" departLane="gneE6_0" departPos="5.10" departSpeed="0.00" departDelay="6.00" arrival="184.00" arrivalLane="gneE3_0" arrivalPos="282.05" arrivalSpeed="13.71" duration="77.00" routeLength="597.64" waitingTime="9.00" waitingCount="1" stopTime="0.00" timeLoss="32.89" rerouteNo="0" devices="tripinfo_31" vType="passenger" speedFactor="0.99" vaporized=""/>
    <tripinfo id="36" depart="122.00" departLane="gneE6_0" departPos="5.10" departSpeed="0.00" departDelay="12.00" arrival="194.00" arrivalLane="gneE1_1" arrivalPos="282.05" arrivalSpeed="13.08" duration="72.00" routeLength="595.27" waitingTime="2.00" waitingCount="1" stopTime="0.00" timeLoss="26.36" rerouteNo="0" devices="tripinfo_36" vType="passenger" speedFactor="0.96" vaporized=""/>
    <tripinfo id="27" depart="86.00" departLane="gneE6_0" departPos="5.10" departSpeed="0.00" departDelay="4.00" arrival="194.00" arrivalLane="gneE1_0" arrivalPos="282.05" arrivalSpeed="13.94" duration="108.00" routeLength="595.27" waitingTime="35.00" waitingCount="2" stopTime="0.00" timeLoss="64.70" rerouteNo="0" devices="tripinfo_27" vType="passenger" speedFactor="1.01" vaporized=""/>
    <tripinfo id="38" depart="121.00" departLane="gneE2_0" departPos="5.10" departSpeed="0.00" departDelay="0.00" arrival="194.00" arrivalLane="gneE3_0" arrivalPos="282.05" arrivalSpeed="14.83" duration="73.00" routeLength="567.94" waitingTime="7.00" waitingCount="1" stopTime="0.00" timeLoss="34.78" rerouteNo="0" devices="tripinfo_38" vType="passenger" speedFactor="1.09" vaporized=""/>
    <tripinfo id="32" depart="112.00" departLane="gneE6_0" departPos="5.10" departSpeed="0.00" departDelay="9.00" arrival="195.00" arrivalLane="gneE1_0" arrivalPos="282.05" arrivalSpeed="13.18" duration="83.00" routeLength="595.27" waitingTime="13.00" waitingCount="1" stopTime="0.00" timeLoss="38.27" rerouteNo="0" devices="tripinfo_32" vType="passenger" speedFactor="0.96" vaporized=""/>
    <tripinfo id="25" depart="79.00" departLane="gneE2_0" departPos="5.10" departSpeed="0.00" departDelay="0.00" arrival="197.00" arrivalLane="gneE5_0" arrivalPos="282.05" arrivalSpeed="11.43" duration="118.00" routeLength="595.27" waitingTime="40.00" waitingCount="2" stopTime="0.00" timeLoss="66.06" rerouteNo="0" devices="tripinfo_25" vType="passenger" speedFactor="0.83" vaporized=""/>
    <tripinfo id="47" depart="140.00" departLane="gneE4_0" departPos="5.10" departSpeed="0.00" departDelay="0.00" arrival="202.00" arrivalLane="gneE1_1" arrivalPos="282.05" arrivalSpeed="11.40" duration="62.00" routeLength="592.32" waitingTime="0.00" waitingCount="0" stopTime="0.00" timeLoss="9.73" rerouteNo="0" devices="tripinfo_47" vType="passenger" speedFactor="0.82" vaporized=""/>
    <tripinfo id="41" depart="130.00" departLane="gneE0_0" departPos="5.10" departSpeed="0.00" departDelay="0.00" arrival="202.00" arrivalLane="gneE1_0" arrivalPos="282.05" arrivalSpeed="13.66" duration="72.00" routeLength="567.94" waitingTime="8.00" waitingCount="1" stopTime="0.00" timeLoss="31.52" rerouteNo="0" devices="tripinfo_41" vType="passenger" speedFactor="1.01" vaporized=""/>
    <tripinfo id="34" depart="109.00" departLane="gneE0_0" departPos="5.10" departSpeed="0.00" departDelay="0.00" arrival="203.00" arrivalLane="gneE5_1" arrivalPos="282.05" arrivalSpeed="13.03" duration="94.00" routeLength="592.32" waitingTime="27.00" waitingCount="1" stopTime="0.00" timeLoss="49.27" rerouteNo="0" devices="tripinfo_34" vType="passenger" speedFactor="0.96" vaporized=""/>
    <tripinfo id="39" depart="124.00" departLane="gneE4_0" departPos="5.10" departSpeed="0.00" departDelay="0.00" arrival="214.00" arrivalLane="gneE7_0" arrivalPos="282.05" arrivalSpeed="13.21" duration="90.00" routeLength="594.92" waitingTime="21.00" waitingCount="1" stopTime="0.00" timeLoss="45.18" rerouteNo="0" devices="tripinfo_39" vType="passenger" speedFactor="0.96" vaporized=""/>
    <tripinfo id="37" depart="118.00" departLane="gneE0_0" departPos="5.10" departSpeed="0.00" departDelay="0.00" arrival="217.00" arrivalLane="gneE3_1" arrivalPos="282.05" arrivalSpeed="11.64" duration="99.00" routeLength="594.92" waitingTime="26.00" waitingCount="1" stopTime="0.00" timeLoss="47.92" rerouteNo="0" devices="tripinfo_37" vType="passenger" speedFactor="0.85" vaporized=""/>
    <tripinfo id="42" depart="135.00" departLane="gneE0_0" departPos="5.10" departSpeed="0.00" departDelay="5.00" arrival="217.00" arrivalLane="gneE3_0" arrivalPos="282.05" arrivalSpeed="10.43" duration="82.00" routeLength="594.92" waitingTime="7.00" waitingCount="1" stopTime="0.00" timeLoss="25.92" rerouteNo="0" devices="tripinfo_42" vType="passenger" speedFactor="0.77" vaporized=""/>
    <tripinfo id="51" depart="161.00" departLane="gneE6_0" departPos="5.10" departSpeed="0.00" departDelay="13.00" arrival="221.00" arrivalLane="gneE3_1" arrivalPos="282.05" arrivalSpeed="11.89" duration="60.00" routeLength="597.64" waitingTime="0.00" waitingCount="0" stopTime="0.00" timeLoss="10.70" rerouteNo="0" devices="tripinfo_51" vType="passenger" speedFactor="0.87" vaporized=""/>
    <tripinfo id="52" depart="156.00" departLane="gneE2_0" departPos="5.10" departSpeed="0.00" departDelay="0.00" arrival="225.00" arrivalLane="gneE7_1" arrivalPos="282.05" arrivalSpeed="13.38" duration="69.00" routeLength="597.64" waitingTime="1.00" waitingCount="1" stopTime="0.00" timeLoss="24.39" rerouteNo="0" devices="tripinfo_52" vType="passenger" speedFactor="0.98" vaporized=""/>
    <tripinfo id="40" depart="130.00" departLane="gneE6_0" departPos="5.10" departSpeed="0.00" departDelay="0.00" arrival="225.00" arrivalLane="gneE3_0" arrivalPos="282.05" arrivalSpeed="12.45" duration="95.00" routeLength="597.64" waitingTime="24.00" waitingCount="1" stopTime="0.00" timeLoss="48.35" rerouteNo="0" devices="tripinfo_40" vType="passenger" speedFactor="0.92" vaporized=""/>
    <tripinfo id="50" depart="150.00" departLane="gneE2_0" departPos="5.10" departSpeed="0.00" departDelay="2.00" arrival="227.00" arrivalLane="gneE7_0" arrivalPos="282.05" arrivalSpeed="11.32" duration="77.00" routeLength="597.64" waitingTime="3.00" waitingCount="1" stopTime="0.00" timeLoss="24.75" rerouteNo="0" devices="tripinfo_50" vType="passenger" speedFactor="0.83" vaporized=""/>
    <tripinfo id="43" depart="135.00" departLane="gneE6_0" departPos="5.10" departSpeed="0.00" departDelay="3.00" arrival="234.00" arrivalLane="gneE1_1" arrivalPos="282.05" arrivalSpeed="14.19" duration="99.00" routeLength="595.27" waitingTime="30.00" waitingCount="1" stopTime="0.00" timeLoss="57.23" rerouteNo="0" devices="tripinfo_43" vType="passenger" speedFactor="1.04" vaporized=""/>
    <tripinfo id="54" depart="163.00" departLane="gneE2_0" departPos="5.10" departSpeed="0.00" departDelay="0.00" arrival="234.00" arrivalLane="gneE5_1" arrivalPos="282.05" arrivalSpeed="13.55" duration="71.00" routeLength="595.27" waitingTime="4.00" waitingCount="1" stopTime="0.00" timeLoss="27.68" rerouteNo="0" devices="tripinfo_54" vType="passenger" speedFactor="1.00" vaporized=""/>
    <tripinfo id="49" depart="145.00" departLane="gneE2_0" departPos="5.10" departSpeed="0.00" departDelay="0.00" arrival="234.00" arrivalLane="gneE5_0" arrivalPos="282.05" arrivalSpeed="13.03" duration="89.00" routeLength="595.27" waitingTime="21.00" waitingCount="1" stopTime="0.00" timeLoss="43.90" rerouteNo="0" devices="tripinfo_49" vType="passenger" speedFactor="0.96" vaporized=""/>
    <tripinfo id="46" depart="151.00" departLane="gneE6_0" departPos="5.10" departSpeed="0.00" departDelay="12.00" arrival="237.00" arrivalLane="gneE1_1" arrivalPos="282.05" arrivalSpeed="11.64" duration="86.00" routeLength="595.27" waitingTime="14.00" waitingCount="1" stopTime="0.00" timeLoss="34.99" rerouteNo="0" devices="tripinfo_46" vType="passenger" speedFactor="0.85" vaporized=""/>
    <tripinfo id="33" depart="117.00" departLane="gneE6_0" departPos="5.10" departSpeed="0.00" departDelay="10.00" arrival="237.00" arrivalLane="gneE1_0" arrivalPos="282.05" arrivalSpeed="11.71" duration="120.00" routeLength="595.27" waitingTime="43.00" waitingCount="2" stopTime="0.00" timeLoss="68.32" rerouteNo="0" devices="tripinfo_33" vType="passenger" speedFactor="0.84" vaporized=""/>
    <tripinfo id="59" depart="172.00" departLane="gneE0_0" departPos="5.10" departSpeed="0.00" departDelay="1.00" arrival="245.00" arrivalLane="gneE5_1" arrivalPos="282.05" arrivalSpeed="11.89" duration="73.00" routeLength="592.32" waitingTime="2.00" waitingCount="1" stopTime="0.00" timeLoss="23.57" rerouteNo="0" devices="tripinfo_59" vType="passenger" speedFactor="0.87" vaporized=""/>
    <tripinfo id="56" depart="167.00" departLane="gneE0_0" departPos="5.10" departSpeed="0.00" departDelay="0.00" arrival="245.00" arrivalLane="gneE1_0" arrivalPos="282.05" arrivalSpeed="11.30" duration="78.00" routeLength="567.94" waitingTime="7.00" waitingCount="1" stopTime="0.00" timeLoss="28.71" rerouteNo="0" devices="tripinfo_56" vType="passenger" speedFactor="0.83" vaporized=""/>
    <tripinfo id="61" depart="189.00" departLane="gneE0_0" departPos="5.10" departSpeed="0.00" departDelay="0.00" arrival="249.00" arrivalLane="gneE3_0" arrivalPos="282.05" arrivalSpeed="11.61" duration="60.00" routeLength="594.92" waitingTime="0.00" waitingCount="0" stopTime="0.00" timeLoss="9.12" rerouteNo="0" devices="tripinfo_61" vType="passenger" speedFactor="0.85" vaporized=""/>
    <tripinfo id="58" depart="171.00" departLane="gneE6_0" departPos="5.10" departSpeed="0.00" departDelay="1.00" arrival="273.00" arrivalLane="gneE1_1" arrivalPos="282.05" arrivalSpeed="14.59" duration="102.00" routeLength="595.27" waitingTime="33.00" waitingCount="1" stopTime="0.00" timeLoss="61.30" rerouteNo="0" devices="tripinfo_58" vType="passenger" speedFactor="1.05" vaporized=""/>
    <tripinfo id="45" depart="146.00" departLane="gneE6_0" departPos="5.10" departSpeed="0.00" departDelay="11.00" arrival="273.00" arrivalLane="gneE7_0" arrivalPos="282.05" arrivalSpeed="14.40" duration="127.00" routeLength="567.94" waitingTime="55.00" waitingCount="2" stopTime="0.00" timeLoss="86.79" rerouteNo="0" devices="tripinfo_45" vType="passenger" speedFactor="1.04" vaporized=""/>
    <tripinfo id="60" depart="189.00" departLane="gneE2_0" departPos="5.10" departSpeed="0.00" departDelay="0.00" arrival="273.00" arrivalLane="gneE3_0" arrivalPos="282.05" arrivalSpeed="15.80" duration="84.00" routeLength="567.94" waitingTime="20.00" waitingCount="1" stopTime="0.00" timeLoss="47.64" rerouteNo="0" devices="tripinfo_60" vType="passenger" speedFactor="1.14" vaporized=""/>
    <tripinfo id="62" depart="194.00" departLane="gneE2_0" departPos="5.10" departSpeed="0.00" departDelay="3.00" arrival="275.00" arrivalLane="gneE5_1" arrivalPos="282.05" arrivalSpeed="12.64" duration="81.00" routeLength="595.27" waitingTime="11.00" waitingCount="1" stopTime="0.00" timeLoss="33.63" rerouteNo="0" devices="tripinfo_62" vType="passenger" speedFactor="0.92" vaporized=""/>
    <tripinfo id="44" depart="141.00" departLane="gneE6_0" departPos="5.10" departSpeed="0.00" departDelay="8.00" arrival="275.00" arrivalLane="gneE1_0" arrivalPos="282.05" arrivalSpeed="12.25" duration="134.00" routeLength="595.27" waitingTime="58.00" waitingCount="2" stopTime="0.00" timeLoss="85.48" rerouteNo="0" devices="tripinfo_44" vType="passenger" speedFactor="0.89" vaporized=""/>
    <tripinfo id="53" depart="166.00" departLane="gneE6_0" departPos="5.10" departSpeed="0.00" departDelay="9.00" arrival="276.00" arrivalLane="gneE1_0" arrivalPos="282.05" arrivalSpeed="11.11" duration="110.00" routeLength="595.27" waitingTime="32.00" waitingCount="1" stopTime="0.00" timeLoss="57.62" rerouteNo="0" devices="tripinfo_53" vType="passenger" speedFactor="0.82" vaporized=""/>
    <tripinfo id="55" depart="168.00" departLane="gneE2_0" departPos="5.10" departSpeed="0.00" departDelay="2.00" arrival="276.00" arrivalLane="gneE5_0" arrivalPos="282.05" arrivalSpeed="11.82" duration="108.00" routeLength="595.27" waitingTime="32.00" waitingCount="1" stopTime="0.00" timeLoss="58.48" rerouteNo="0" devices="tripinfo_55" vType="passenger" speedFactor="0.87" vaporized=""/>
    <tripinfo id="48" depart="156.00" departLane="gneE6_0" departPos="5.10" departSpeed="0.00" departDelay="14.00" arrival="277.00" arrivalLane="gneE7_0" arrivalPos="282.05" arrivalSpeed="13.12" duration="121.00" routeLength="567.94" waitingTime="47.00" waitingCount="2" stopTime="0.00" timeLoss="77.45" rerouteNo="0" devices="tripinfo_48" vType="passenger" speedFactor="0.96" vaporized=""/>
    <tripinfo id="63" depart="199.00" departLane="gneE2_0" departPos="5.10" departSpeed="0.00" departDelay="2.00" arrival="277.00" arrivalLane="gneE3_0" arrivalPos="282.05" arrivalSpeed="13.17" duration="78.00" routeLength="567.94" waitingTime="10.00" waitingCount="1" stopTime="0.00" timeLoss="35.30" rerouteNo="0" devices="tripinfo_63" vType="passenger" speedFactor="0.96" vaporized=""/>
    <tripinfo id="65" depart="208.00" departLane="gneE6_0" departPos="5.10" departSpeed="0.00" departDelay="0.00" arrival="278.00" arrivalLane="gneE7_1" arrivalPos="282.05" arrivalSpeed="13.97" duration="70.00" routeLength="567.94" waitingTime="2.00" waitingCount="1" stopTime="0.00" timeLoss="28.95" rerouteNo="0" devices="tripinfo_65" vType="passenger" speedFactor="1.01" vaporized=""/>
    <tripinfo id="57" depart="173.00" departLane="gneE2_0" departPos="5.10" departSpeed="0.00" departDelay="5.00" arrival="278.00" arrivalLane="gneE5_0" arrivalPos="282.05" arrivalSpeed="10.49" duration="105.00" routeLength="595.27" waitingTime="30.00" waitingCount="1" stopTime="0.00" timeLoss="49.73" rerouteNo="0" devices="tripinfo_57" vType="passenger" speedFactor="0.78" vaporized=""/>
    <tripinfo id="71" depart="223.00" departLane="gneE6_0" departPos="5.10" departSpeed="0.00" departDelay="9.00" arrival="279.00" arrivalLane="gneE7_0" arrivalPos="282.05" arrivalSpeed="15.51" duration="56.00" routeLength="567.94" waitingTime="0.00" waitingCount="0" stopTime="0.00" timeLoss="18.61" rerouteNo="0" devices="tripinfo_71" vType="passenger" speedFactor="1.12" vaporized=""/>
    <tripinfo id="70" depart="218.00" departLane="gneE2_0" departPos="5.10" departSpeed="0.00" departDelay="4.00" arrival="279.00" arrivalLane="gneE3_0" arrivalPos="282.05" arrivalSpeed="13.47" duration="61.00" routeLength="567.94" waitingTime="0.00" waitingCount="0" stopTime="0.00" timeLoss="18.96" rerouteNo="0" devices="tripinfo_70" vType="passenger" speedFactor="0.97" vaporized=""/>
    <tripinfo id="72" depart="216.00" departLane="gneE0_0" departPos="5.10" departSpeed="0.00" departDelay="1.00" arrival="281.00" arrivalLane="gneE5_2" arrivalPos="282.05" arrivalSpeed="16.04" duration="65.00" routeLength="592.32" waitingTime="2.00" waitingCount="1" stopTime="0.00" timeLoss="28.08" rerouteNo="0" devices="tripinfo_72" vType="passenger" speedFactor="1.16" vaporized=""/>
    <tripinfo id="68" depart="211.00" departLane="gneE0_0" departPos="5.10" departSpeed="0.00" departDelay="0.00" arrival="293.00" arrivalLane="gneE3_0" arrivalPos="282.05" arrivalSpeed="14.58" duration="82.00" routeLength="594.92" waitingTime="15.00" waitingCount="1" stopTime="0.00" timeLoss="41.36" rerouteNo="0" devices="tripinfo_68" vType="passenger" speedFactor="1.06" vaporized=""/>
    <tripinfo id="74" depart="220.00" departLane="gneE0_0" departPos="5.10" departSpeed="0.00" departDelay="1.00" arrival="294.00" arrivalLane="gneE3_1" arrivalPos="282.05" arrivalSpeed="13.59" duration="74.00" routeLength="594.92" waitingTime="5.00" waitingCount="1" stopTime="0.00" timeLoss="29.88" rerouteNo="0" devices="tripinfo_74" vType="passenger" speedFactor="0.98" vaporized=""/>
    <tripinfo id="79" depart="230.00" departLane="gneE2_0" departPos="5.10" departSpeed="0.00" departDelay="0.00" arrival="305.00" arrivalLane="gneE7_0" arrivalPos="282.05" arrivalSpeed="12.84" duration="75.00" routeLength="597.64" waitingTime="6.00" waitingCount="1" stopTime="0.00" timeLoss="28.31" rerouteNo="0" devices="tripinfo_79" vType="passenger" speedFactor="0.94" vaporized=""/>
    <tripinfo id="73" depart="228.00" departLane="gneE6_0" departPos="5.10" departSpeed="0.00" departDelay="12.00" arrival="313.00" arrivalLane="gneE1_0" arrivalPos="282.05" arrivalSpeed="15.04" duration="85.00" routeLength="595.27" waitingTime="17.00" waitingCount="1" stopTime="0.00" timeLoss="45.55" rerouteNo="0" devices="tripinfo_73" vType="passenger" speedFactor="1.09" vaporized=""/>
    <tripinfo id="66" depart="213.00" departLane="gneE6_0" departPos="5.10" departSpeed="0.00" departDelay="3.00" arrival="314.00" arrivalLane="gneE1_0" arrivalPos="282.05" arrivalSpeed="13.09" duration="101.00" routeLength="595.27" waitingTime="32.00" waitingCount="1" stopTime="0.00" timeLoss="56.31" rerouteNo="0" devices="tripinfo_66" vType="passenger" speedFactor="0.96" vaporized=""/>
    <tripinfo id="67" depart="212.00" departLane="gneE2_0" departPos="5.10" departSpeed="0.00" departDelay="1.00" arrival="314.00" arrivalLane="gneE5_2" arrivalPos="282.05" arrivalSpeed="13.93" duration="102.00" routeLength="595.27" waitingTime="33.00" waitingCount="2" stopTime="0.00" timeLoss="59.56" rerouteNo="0" devices="tripinfo_67" vType="passenger" speedFactor="1.02" vaporized=""/>